ITEM: TIMESTEP
1000
ITEM: NUMBER OF ATOMS
2000
ITEM: BOX BOUNDS pp pp pp
-3.5619399259632611e-01 2.8908193992596324e+01
-3.5619399259632611e-01 2.8908193992596324e+01
-3.5619399259632611e-01 2.8908193992596324e+01
ITEM: ATOMS id type x y z v_sx v_sy v_sz v_mises v_mean
2 1 1.10304 1.10368 1.16728 11.291 9.33768 10.1756 7.52465 10.2681
23 1 2.76459 2.60304 -0.272042 10.5612 6.73239 4.40688 6.98258 7.23348
203 1 2.62685 -0.357047 2.50224 9.13244 5.40296 6.46949 13.6336 7.00163
223 1 2.50828 2.60446 2.55215 2.9305 1.36946 2.99253 6.9073 2.43083
4 1 4.08698 1.15424 1.23574 7.70369 7.27074 8.77074 11.4574 7.91506
6 1 7.00335 1.15567 1.04556 7.79727 11.3367 6.88883 9.57694 8.67427
205 1 5.62661 28.8941 2.35873 7.61461 5.1468 12.0369 7.38963 8.26611
225 1 5.5294 2.54538 2.60264 10.9816 10.3539 5.60672 7.56715 8.98072
8 1 9.95327 1.06019 1.19299 7.75349 9.9542 10.8761 10.896 9.52793
29 1 11.497 2.70526 28.9625 9.42225 13.213 8.90431 6.18932 10.5132
207 1 8.46205 28.8515 2.49107 10.8971 11.0289 10.1034 5.63912 10.6765
227 1 8.48864 2.56284 2.60446 9.49991 13.7975 9.27884 5.83081 10.8587
229 1 11.3053 2.64782 2.56259 5.9306 10.6326 5.09765 6.72282 7.22029
10 1 12.8658 1.08369 1.21189 6.76704 10.3397 9.22354 6.26276 8.77675
11 1 14.2319 28.7432 -0.441392 3.11935 7.66619 5.00795 6.94214 5.2645
12 1 15.5888 1.08803 1.23808 7.88375 9.76921 3.30067 7.92843 6.98454
31 1 14.3073 2.57395 28.8005 6.7405 10.8317 9.99669 6.12547 9.18963
231 1 14.27 2.61036 2.50874 5.99743 6.82928 6.29983 4.76093 6.37551
14 1 18.6246 1.13893 1.07951 10.3633 6.422 11.5646 6.18801 9.44996
15 1 20.0973 28.9255 28.9229 11.0682 9.58529 13.4267 4.52002 11.36
213 1 17.1643 29.013 2.68693 10.5186 7.94935 10.4086 6.2651 9.6255
215 1 20.2161 29.0359 2.67207 9.55358 7.40033 9.66599 5.34692 8.8733
233 1 17.1874 2.45301 2.63558 10.505 6.88115 10.2004 7.1569 9.19552
235 1 20.1361 2.62199 2.46136 9.85855 5.458 9.62188 6.72247 8.31281
16 1 21.5708 1.13044 0.975746 10.3724 11.8176 11.3228 4.88602 11.171
18 1 24.5042 1.07887 1.10971 10.0009 10.1451 5.88047 9.5182 8.6755
237 1 23.0258 2.73791 2.54487 6.08259 12.5352 7.95542 7.1463 8.85774
21 1 28.94 2.72175 28.826 13.27 10.1422 6.23143 6.81797 9.8812
201 1 28.8266 -0.393335 2.59293 11.5736 7.47372 12.3873 5.51629 10.4782
221 1 28.9425 2.52802 2.53833 8.06335 10.4354 6.52098 6.49979 8.33992
20 1 27.4875 1.13207 0.943111 9.54213 6.91961 10.9939 4.76507 9.15189
219 1 25.9987 -0.313653 2.42363 8.89862 8.32701 8.16236 5.26735 8.46266
239 1 25.922 2.52635 2.3762 9.72244 6.87812 6.09592 8.6218 7.56549
22 1 1.10597 3.99924 1.10409 5.0301 5.93435 2.65029 9.73749 4.53825
42 1 0.988763 6.99001 1.05637 0.853983 11.0009 3.22122 10.6921 5.02536
43 1 2.43201 5.5038 -0.308385 8.51107 5.10239 1.50362 9.31208 5.03903
241 1 -0.385063 5.54481 2.44745 9.02865 7.7348 3.5602 10.6533 6.77455
243 1 2.5705 5.42245 2.37408 0.12937 4.11278 4.19423 9.85429 2.81213
24 1 4.04439 4.07977 1.12176 4.91996 3.77323 -0.0346822 12.9342 2.88617
26 1 6.98402 4.08795 1.10095 9.432 8.76642 7.00749 2.85392 8.40197
44 1 3.85072 6.98961 1.13542 9.88926 8.01005 7.98841 6.73562 8.62924
46 1 6.90152 6.96895 1.287 8.83713 4.01056 3.7583 9.60746 5.53533
245 1 5.41192 5.57968 2.50909 5.60077 7.77691 3.5239 7.87744 5.63386
28 1 9.89138 4.05995 1.15122 6.73236 8.59198 5.45005 7.74316 6.9248
48 1 9.88767 6.9506 1.20606 4.46431 6.9503 8.62337 4.52277 6.67933
247 1 8.44129 5.56763 2.64939 7.15291 7.835 4.23762 8.27079 6.40851
249 1 11.3729 5.51549 2.69024 5.68257 7.85082 5.51971 6.31996 6.35103
30 1 12.8071 4.07488 1.20058 9.22336 8.45522 10.4027 10.4004 9.36042
32 1 15.8241 4.08749 1.13893 10.689 9.37893 14.5281 7.04512 11.532
50 1 12.6776 7.01065 1.17308 8.4543 7.0573 10.7185 4.01568 8.74335
52 1 15.6685 6.8695 1.22213 13.0985 7.2525 7.28805 10.6542 9.213
251 1 14.2071 5.5184 2.58886 7.36485 8.6683 8.82398 5.68267 8.28571
34 1 18.6276 4.07861 1.04876 2.19772 2.96094 3.89297 14.1303 3.01721
54 1 18.6924 6.98079 0.956854 6.32911 4.42788 5.24664 7.17059 5.33455
253 1 17.2199 5.37358 2.63699 7.62539 11.0926 5.64833 12.8063 8.12212
255 1 20.0078 5.44172 2.39771 6.62674 5.1428 10.8785 8.61297 7.54934
36 1 21.5763 4.18056 0.906744 6.27715 8.61915 6.86997 4.42075 7.25542
38 1 24.4686 4.1112 1.03816 8.11778 5.982 10.3419 5.87166 8.14723
56 1 21.5889 6.9806 1.14344 7.47195 2.07561 7.6319 11.6087 5.72649
58 1 24.5693 6.82636 1.06864 6.41508 2.89963 5.87081 3.43888 5.06184
257 1 23.0308 5.55924 2.4656 8.17707 5.09685 6.33873 4.70536 6.53755
40 1 27.4334 3.99103 1.03813 10.005 9.06554 6.05063 9.95609 8.37373
60 1 27.5031 6.99625 1.0292 2.27128 5.67907 4.52379 8.95572 4.15805
259 1 25.9418 5.46888 2.54904 7.89181 8.63493 10.498 13.6838 9.00825
62 1 0.99845 10.0214 1.04926 6.54055 7.58159 3.57373 8.17527 5.89862
263 1 2.37631 8.53296 2.50256 11.102 12.1495 11.7511 5.64657 11.6676
283 1 2.54585 11.4468 2.57187 9.50888 3.99549 11.0099 8.78976 8.17143
64 1 3.97625 9.97437 1.11343 15.3677 11.2259 10.8176 4.87227 12.4704
66 1 7.00623 9.85135 1.05199 7.61971 10.1341 8.0489 4.11113 8.60091
85 1 5.45936 11.3155 -0.379048 10.0849 13.1356 9.69708 6.77504 10.9725
265 1 5.48314 8.4931 2.54323 15.0642 7.83422 13.0367 7.93729 11.9784
285 1 5.58451 11.298 2.56885 9.28549 10.3545 11.9062 5.47479 10.5154
67 1 8.43561 8.34375 -0.250309 6.52446 6.56884 8.63475 6.98734 7.24269
68 1 9.78787 9.89273 1.20476 5.7974 7.44246 6.90278 6.97117 6.71421
69 1 11.2696 8.38413 28.9392 9.82793 9.59149 12.9869 7.27925 10.8021
89 1 11.2572 11.3582 -0.288252 9.15758 11.5402 10.7165 9.46969 10.4714
267 1 8.43666 8.51917 2.61596 6.78608 6.36721 4.67194 6.88939 5.94174
269 1 11.324 8.49667 2.67163 8.3547 11.9751 11.7705 6.59688 10.7001
287 1 8.32869 11.3885 2.5509 6.2224 5.48443 6.32286 4.87977 6.0099
289 1 11.2794 11.4597 2.4765 12.5631 9.13029 9.07859 5.40143 10.2573
70 1 12.7362 9.87044 1.16075 9.129 7.59696 12.949 7.4857 9.89165
71 1 14.1858 8.43364 -0.460111 14.0481 11.4371 11.8364 5.55357 12.4405
72 1 15.617 9.82282 1.1177 11.7873 15.3116 9.46192 7.2184 12.1869
91 1 14.187 11.3315 28.9482 15.1427 9.48263 7.82131 10.9731 10.8156
271 1 14.222 8.49508 2.54349 7.24488 10.142 9.25518 5.28215 8.88069
291 1 14.287 11.4351 2.55152 12.8986 6.67479 9.21905 9.84361 9.59748
73 1 17.206 8.45813 -0.421142 11.332 5.70061 0.920807 10.582 5.98447
74 1 18.6098 9.92485 1.05288 12.7178 8.90856 6.26956 14.1542 9.29864
273 1 17.1708 8.37607 2.42877 11.146 14.2808 12.7055 3.83184 12.7108
275 1 20.14 8.39222 2.44974 11.4776 2.62155 5.9145 9.75847 6.67121
293 1 17.1986 11.38 2.72013 10.6163 14.6209 12.5457 4.70663 12.5943
295 1 19.984 11.123 2.51322 4.25171 7.53619 7.50843 6.5438 6.43211
76 1 21.6263 9.75046 1.02835 7.54264 6.3267 3.1729 5.12098 5.68075
77 1 23.0655 8.43767 -0.451101 5.18637 10.3259 5.70966 7.67934 7.07397
78 1 24.5185 9.8272 0.990476 3.89355 6.04408 4.08297 14.9735 4.67353
97 1 23.0157 11.3973 -0.383074 7.76628 10.3844 10.3413 5.18586 9.49733
277 1 23.2712 8.48382 2.35665 4.58654 -1.10764 4.77795 8.86235 2.75228
297 1 22.9645 11.1854 2.51716 10.2855 8.03406 10.7929 9.12997 9.70415
61 1 -0.458106 8.52494 -0.300745 8.1879 3.70075 0.599698 10.924 4.16278
261 1 -0.376725 8.44083 2.56298 4.21496 8.68871 3.54413 8.88866 5.4826
281 1 28.8825 11.4223 2.58963 5.86889 7.83934 5.33633 10.7043 6.34819
79 1 25.8781 8.47785 -0.376838 7.14912 10.1487 6.95626 9.79111 8.08468
80 1 27.5036 9.91029 1.07335 7.40725 7.45075 8.18327 8.7687 7.68043
99 1 25.8642 11.4308 -0.320851 10.1786 7.39773 9.52629 8.00137 9.03421
279 1 25.9765 8.37645 2.50011 8.27737 13.1798 10.7194 4.4434 10.7255
299 1 25.9049 11.2992 2.58399 10.9532 12.3054 8.89466 6.03427 10.7178
82 1 1.07448 12.8169 1.15265 8.10748 4.43263 6.9332 13.833 6.4911
101 1 29.045 14.1449 -0.304017 8.60588 7.28517 10.9591 11.8748 8.95005
102 1 1.1651 15.7301 1.30996 4.67184 9.83854 3.69909 8.22477 6.06982
301 1 28.7847 14.3726 2.64643 6.93223 4.50408 8.03175 6.94849 6.48935
303 1 2.58871 14.2123 2.59893 8.03536 6.62254 6.64513 9.57135 7.10101
84 1 4.06994 12.8089 1.07714 10.0633 7.93262 8.4488 6.35014 8.81492
86 1 6.97715 12.8981 1.08539 5.89104 9.90267 6.77063 4.5177 7.52144
104 1 4.0408 15.7945 1.10514 5.58094 6.82232 7.54417 3.00216 6.64914
106 1 7.0208 15.7036 1.22631 3.0938 2.74582 3.57614 4.74787 3.13859
305 1 5.37817 14.3165 2.49076 8.21343 8.24852 8.13036 2.94556 8.19744
88 1 9.77208 12.8076 1.11695 5.26065 4.7254 4.58681 4.6246 4.85762
108 1 9.85231 15.7545 1.04373 6.96994 5.00755 8.45183 9.51099 6.80977
307 1 8.44515 14.2582 2.55791 9.01911 0.0558164 4.85161 11.9008 4.64218
309 1 11.4079 14.3202 2.48227 14.0521 11.402 13.7356 4.23233 13.0632
90 1 12.8055 12.7914 1.00107 8.17674 5.68491 5.84729 10.9898 6.56965
92 1 15.761 12.8839 1.19232 5.82135 12.8433 8.65015 8.3505 9.10493
110 1 12.9135 15.7587 1.10776 11.976 14.3173 7.70867 9.00147 11.334
112 1 15.7425 15.8489 1.1583 8.59166 13.9279 8.63631 6.85838 10.3853
311 1 14.3581 14.1992 2.59318 4.9831 9.32391 3.25757 10.8075 5.85486
94 1 18.5992 12.8482 1.20588 7.5613 10.7363 10.4208 4.41793 9.57277
114 1 18.68 15.8046 1.12803 9.58859 12.8444 10.9327 5.28894 11.1219
313 1 17.1749 14.3131 2.59649 7.48016 7.04356 3.73205 6.53585 6.08525
315 1 20.2117 14.2359 2.59659 8.04847 13.3097 9.39052 7.34107 10.2496
96 1 21.4727 12.7587 1.19468 12.5667 11.6151 8.54009 8.64588 10.9073
98 1 24.4783 12.8372 1.18747 11.1728 9.92568 10.5048 10.2738 10.5344
116 1 21.594 15.615 0.971189 10.2271 10.9819 8.85524 4.74898 10.0214
118 1 24.6283 15.7856 1.33367 9.99297 2.90548 6.85279 8.99584 6.58375
317 1 23.0325 14.301 2.59349 9.39581 13.9337 11.4997 4.56756 11.6097
100 1 27.3859 12.8145 1.33421 5.90475 6.19666 5.79818 4.03545 5.96653
120 1 27.544 15.7484 1.0966 8.51897 9.83855 8.23954 7.90444 8.86569
319 1 26.0552 14.3218 2.64912 4.24731 7.32923 5.45031 10.9179 5.67562
121 1 -0.224828 17.1498 29.0744 6.12216 12.185 10.7401 9.1455 9.68242
122 1 1.09306 18.8526 1.16825 0.194894 6.42111 3.13117 9.72513 3.24906
321 1 28.8468 17.2032 2.6734 4.08044 1.6061 6.20195 5.4964 3.96283
323 1 2.55117 17.2078 2.57191 8.0149 9.15154 3.12744 13.0185 6.76463
341 1 28.8384 20.1222 2.67717 2.20913 3.88284 4.00343 7.84416 3.36513
343 1 2.66442 20.1861 2.49666 8.65612 5.67224 1.47813 9.66698 5.26883
124 1 3.87863 18.7187 1.1494 6.03821 1.9429 4.8176 7.74616 4.26624
126 1 6.99881 18.6064 1.12217 9.84236 6.14273 4.42581 12.0881 6.80363
145 1 5.50724 20.0845 -0.342427 13.2061 8.09502 7.8711 6.13816 9.72409
325 1 5.47881 17.1868 2.55651 8.63299 3.56676 6.25076 8.44271 6.15017
345 1 5.55531 19.992 2.53122 2.47846 8.00181 9.06521 8.32135 6.51516
128 1 9.9319 18.6116 1.2079 11.6526 12.1163 14.2223 2.65582 12.6637
149 1 11.3726 20.0306 28.9654 5.91689 6.64276 5.27372 10.5836 5.94446
327 1 8.45764 17.0258 2.56062 8.90896 3.14611 4.64186 6.84173 5.56564
329 1 11.4604 17.288 2.70588 13.3071 7.82098 12.4754 8.15719 11.2011
347 1 8.27573 19.9296 2.63761 8.85832 7.48133 6.05369 8.12524 7.46445
349 1 11.3779 20.0831 2.62279 12.0084 3.34817 6.13817 14.3278 7.16492
130 1 12.8527 18.8324 1.28736 5.90195 6.65043 0.741917 8.40389 4.43143
131 1 14.3679 17.3134 -0.28281 7.0617 8.27696 5.1117 5.77975 6.81679
132 1 15.805 18.9193 1.08479 10.3848 9.54003 11.8482 3.94531 10.591
151 1 14.1998 20.2169 28.9477 6.75175 1.27811 4.09186 6.16823 4.04057
331 1 14.4143 17.3653 2.60382 8.14987 13.9303 8.91538 9.04975 10.3319
351 1 14.3989 20.2959 2.55511 8.37522 3.75117 6.86889 7.38737 6.33176
134 1 18.7448 18.8542 1.00618 4.09788 7.22711 8.19714 7.81841 6.50737
333 1 17.2281 17.2808 2.52106 8.42914 13.9379 8.79113 5.53349 10.386
335 1 20.146 17.2498 2.44028 5.62965 9.25331 10.2039 8.09205 8.36229
353 1 17.3213 20.2731 2.60155 5.76512 9.97074 8.39796 5.7804 8.04461
355 1 20.0911 20.1743 2.61219 7.79242 5.81538 5.11905 4.41856 6.24228
136 1 21.5588 18.7443 1.11459 9.80009 13.4279 6.17706 8.7348 9.80168
137 1 23.0662 17.1675 29.0082 8.10932 8.16881 7.07456 4.06599 7.78423
138 1 24.5731 18.6369 1.17076 13.5503 10.8362 6.75739 8.84768 10.3813
157 1 23.1117 20.1422 28.9452 12.6929 11.7567 10.4951 3.39572 11.6482
337 1 22.937 17.2345 2.54476 7.67907 10.3502 8.75521 7.65025 8.92815
357 1 23.1417 20.2594 2.65211 12.5079 10.428 5.12333 8.4201 9.35308
139 1 26.0134 17.2653 28.945 12.381 11.6727 6.65698 9.41716 10.2369
140 1 27.5435 18.6997 1.15451 9.82961 11.6791 9.3124 4.28391 10.2737
159 1 26.0732 20.0984 28.8294 14.4786 14.0646 17.9143 3.82907 15.4858
339 1 26.0132 17.2663 2.52812 2.32311 3.97262 0.177774 9.01353 2.15783
359 1 26.1252 20.2581 2.67479 5.96652 6.40893 9.80743 6.43009 7.39429
142 1 1.06211 21.5558 1.06838 5.69966 4.25929 13.9859 12.6865 7.98161
162 1 1.28144 24.4637 1.16786 8.05373 8.11224 7.78796 6.9125 7.98465
163 1 2.51121 22.9656 -0.46282 6.98428 10.2481 13.4987 9.31769 10.2437
363 1 2.61359 23.0698 2.63119 8.17225 7.22988 12.1015 7.70864 9.16789
144 1 4.04211 21.5491 1.07997 8.96745 6.82152 8.40484 10.0044 8.06461
146 1 6.99592 21.5759 1.05176 11.5028 8.14263 9.6513 6.01222 9.76559
164 1 3.98524 24.5033 1.04266 5.98475 11.144 7.61044 7.94115 8.24639
165 1 5.43292 22.9847 28.8995 9.56493 6.39726 10.0289 6.71755 8.66369
166 1 6.98789 24.3889 1.07008 12.4816 10.8418 8.38637 5.75686 10.5699
365 1 5.42763 22.9912 2.54695 10.8005 14.2989 6.98136 8.46753 10.6936
148 1 10.0078 21.5946 1.06541 9.2718 7.99183 11.4802 11.1943 9.58127
168 1 9.84888 24.3355 1.05782 8.56271 9.01345 6.87428 4.47267 8.15014
169 1 11.3135 22.9825 28.7212 10.398 7.39296 7.1484 6.82533 8.31312
367 1 8.48721 22.8221 2.50566 10.2987 11.8476 8.79666 3.87905 10.3143
369 1 11.4244 23.0272 2.4966 5.63166 3.81903 8.91364 7.62569 6.12144
150 1 12.8044 21.5974 1.10277 7.72285 2.57417 8.6951 12.3257 6.33071
152 1 15.8581 21.6325 1.05919 6.74305 1.71747 4.39181 8.38548 4.28411
170 1 12.8367 24.4263 1.01091 7.72246 5.45524 6.25883 5.9849 6.47884
171 1 14.3669 22.9433 -0.338651 10.0711 4.93756 7.23728 10.12 7.41531
172 1 15.7869 24.5587 1.04375 9.61114 9.88107 8.58154 2.86716 9.35792
371 1 14.338 23.0586 2.51915 9.56515 5.92843 11.1655 5.54075 8.88637
154 1 18.6852 21.7107 1.03323 6.6982 2.40023 6.25478 5.63428 5.11774
174 1 18.7131 24.4975 1.10682 8.39832 6.53362 7.15919 5.38639 7.36371
175 1 20.2772 23.1438 29.0067 2.60119 2.47371 4.97184 10.5302 3.34891
373 1 17.2622 23.0965 2.58788 7.04454 3.59297 4.68451 9.43192 5.10734
375 1 20.1552 23.0639 2.58104 8.26894 7.79914 5.03501 5.25554 7.03436
156 1 21.6889 21.6707 1.04112 12.5596 8.56105 9.26175 9.57713 10.1275
158 1 24.6165 21.6429 1.11752 11.9974 10.136 9.79219 5.99347 10.6419
176 1 21.7046 24.5292 1.06816 9.78107 8.68139 6.42011 7.77931 8.29419
177 1 23.2069 23.1103 28.762 2.83536 3.22077 7.82568 6.27887 4.62727
178 1 24.6639 24.4682 1.04557 0.511761 2.29445 6.34929 11.3511 3.05183
377 1 23.1543 23.1684 2.48629 8.39446 4.89356 8.58035 7.28115 7.28946
161 1 28.9315 22.9913 -0.285123 6.61234 5.44418 9.48863 10.4457 7.18172
361 1 28.9086 23.0979 2.58623 6.16561 8.28789 5.36154 7.6605 6.60501
160 1 27.6111 21.6659 1.11235 6.00765 4.25616 9.0065 10.8609 6.42344
180 1 27.4449 24.4388 1.01587 7.27077 5.82797 9.45733 5.36938 7.51869
379 1 26.0365 23.0699 2.56371 0.787889 3.74255 3.6216 8.5849 2.71734
3 1 2.57031 28.902 28.9072 9.89258 7.66925 5.82675 8.0346 7.79619
181 1 -0.227972 25.8793 28.9582 10.2914 14.1542 17.058 7.36809 13.8345
182 1 1.23258 27.4474 1.27374 6.23894 5.5071 4.18765 6.47058 5.31123
381 1 28.9822 26.0562 2.62486 7.48954 5.67407 6.50745 4.5157 6.55702
383 1 2.65811 25.9143 2.59268 6.36215 5.51172 5.38867 3.98358 5.75418
184 1 4.04123 27.5112 1.03267 5.72422 10.6136 4.10765 8.84283 6.81515
185 1 5.46706 25.8833 28.9542 11.3023 6.01505 1.05305 10.0378 6.12346
186 1 6.98464 27.3772 0.945328 12.4197 12.6683 9.31526 4.83876 11.4677
385 1 5.55799 26.0324 2.48517 6.63761 11.1996 5.88497 6.85837 7.9074
209 1 11.4129 28.7154 2.41905 1.49708 4.80138 0.499001 8.20803 2.26582
188 1 10.1186 27.4119 0.914179 2.4703 5.81782 3.48064 16.5542 3.92292
189 1 11.4083 25.8603 28.8755 2.55202 9.40214 7.09889 9.68106 6.35102
387 1 8.36248 25.996 2.45628 9.00573 12.8023 7.28542 11.6726 9.69781
389 1 11.4007 25.8449 2.49112 8.93036 5.25978 8.18026 5.63075 7.4568
211 1 14.263 -0.484028 2.53767 3.42746 6.69838 5.98446 6.42469 5.3701
190 1 12.7207 27.4234 1.02509 2.14301 6.5309 5.83741 10.1906 4.8371
191 1 14.2019 25.9093 -0.390534 11.5282 9.14975 11.8319 5.07427 10.8366
192 1 15.7653 27.4512 1.11464 13.4931 9.32736 8.1041 9.39387 10.3082
391 1 14.122 25.9295 2.51403 8.16613 6.21875 9.11853 5.47532 7.83447
13 1 17.1647 28.8059 28.9464 8.73222 7.86754 9.95814 10.6978 8.85263
193 1 17.299 25.9566 -0.376211 15.1718 9.86096 11.4692 7.75223 12.1673
194 1 18.7133 27.5476 1.23091 13.8527 12.4474 10.9106 8.38244 12.4036
195 1 20.2481 26.0401 28.8262 9.81675 6.51212 9.86768 7.54422 8.73218
393 1 17.3348 25.9374 2.49435 10.5966 9.25892 7.7983 5.34208 9.21794
395 1 20.2434 26.0315 2.54026 11.9686 12.4127 13.1414 3.02133 12.5076
217 1 23.0561 28.8695 2.66482 7.11221 13.4016 10.9385 11.0909 10.4841
196 1 21.7018 27.5025 1.11912 10.3245 11.726 7.74387 9.25053 9.93148
197 1 23.2306 25.8792 28.9119 5.45218 2.87128 4.11149 8.06807 4.14498
198 1 24.5292 27.4603 1.06289 9.12942 10.169 9.40098 5.8739 9.56646
397 1 23.2909 25.9109 2.54224 10.8245 7.03025 10.4776 4.97942 9.44409
199 1 26.1047 25.9195 28.9102 6.43771 5.43791 6.37914 10.0483 6.08492
200 1 27.4988 27.4574 1.02327 11.0258 10.6678 9.61689 4.47894 10.4368
399 1 26.092 26.0472 2.52286 8.83008 13.2516 14.267 5.53842 12.1162
202 1 1.07179 1.12318 4.02153 8.75055 8.69488 8.72021 6.83727 8.72188
401 1 29.0384 -0.335933 5.47946 8.61063 7.65515 4.93547 9.16549 7.06708
402 1 1.13925 1.24497 6.96302 9.6139 11.2041 10.8203 2.68302 10.5461
423 1 2.67238 2.63371 5.52381 11.1291 13.8475 8.39016 5.78499 11.1223
204 1 3.90757 1.11342 3.96194 11.1921 7.03572 4.95387 8.30468 7.72722
206 1 6.92694 1.06574 3.97677 13.9761 12.4756 5.99407 11.4234 10.8153
404 1 3.98779 1.10765 6.83652 8.51626 8.98068 11.7357 6.39772 9.74422
406 1 6.88266 1.09498 6.79093 11.1549 8.41035 9.54327 10.832 9.70283
425 1 5.51399 2.60435 5.36667 9.7856 13.7786 7.77869 6.76221 10.4476
208 1 9.9635 0.901812 4.0706 5.93544 6.14161 3.73897 9.25532 5.27201
407 1 8.36819 29.0327 5.43814 5.01177 7.93309 4.81963 10.1229 5.9215
408 1 9.87348 1.01113 7.0265 10.3359 5.89094 5.65238 5.82442 7.29307
409 1 11.3926 28.8859 5.3517 4.57098 2.06674 4.71594 7.52869 3.78455
427 1 8.45952 2.62327 5.42286 6.8604 10.1528 10.5367 6.35943 9.18331
429 1 11.1491 2.45569 5.4248 7.48936 7.43196 8.61073 7.53313 7.84402
210 1 12.8763 1.05752 3.89932 4.0167 7.27809 6.33384 5.74521 5.87621
212 1 15.5685 1.05222 4.01452 4.66385 7.62179 4.59787 11.4373 5.62783
410 1 12.8305 0.945961 6.92897 8.61864 11.3736 12.5471 7.75934 10.8464
411 1 14.2509 28.7592 5.39502 6.92879 6.62392 9.46506 5.17204 7.67259
412 1 15.6552 0.968775 7.04092 4.92533 5.60612 6.16264 14.956 5.5647
431 1 14.1863 2.41613 5.39979 11.5994 8.77696 3.64404 7.60308 8.0068
214 1 18.7311 1.2197 4.06446 11.2281 6.3834 8.14492 7.48471 8.58546
414 1 18.6534 1.10215 6.97072 13.4961 8.95416 9.87876 6.37436 10.7763
433 1 17.1939 2.60735 5.53481 14.9483 7.69737 9.34021 8.51315 10.662
435 1 20.1666 2.49947 5.62378 7.94645 3.53827 9.06581 7.03267 6.85018
216 1 21.6348 1.22147 4.00691 7.20808 8.24392 10.4833 7.55662 8.64511
218 1 24.5094 1.17918 3.95713 7.70469 10.8246 10.0713 3.49914 9.53355
416 1 21.7105 1.06935 6.92143 9.71307 5.00612 8.05079 11.1546 7.58999
417 1 22.9881 -0.25887 5.51865 10.3287 9.86797 4.29488 12.6535 8.16386
418 1 24.616 1.14205 6.93143 4.71625 8.12544 10.799 8.95861 7.88023
437 1 23.1035 2.62264 5.45243 8.52015 7.53364 7.77504 8.57151 7.94295
421 1 28.8771 2.61975 5.35321 11.519 9.5542 7.10237 6.93007 9.39188
220 1 27.3833 1.19037 3.98208 7.95503 8.11473 10.7088 7.4319 8.92619
419 1 25.979 28.9664 5.35409 10.7775 9.51752 6.74118 6.74326 9.01208
420 1 27.4237 1.1162 6.83527 8.26645 3.00431 7.83454 7.73798 6.36843
439 1 25.9819 2.68747 5.33246 2.40007 5.03112 7.0773 6.41328 4.83616
222 1 1.12755 4.03829 3.941 9.50241 7.77502 10.8898 8.67955 9.38907
242 1 1.18215 6.89812 3.95488 7.63352 11.9942 10.1335 9.53906 9.92043
422 1 1.13249 4.1324 6.96929 12.2198 7.64699 13.9143 5.83882 11.2603
442 1 0.990134 6.98202 6.9501 9.94106 6.05308 6.28685 7.91657 7.42699
443 1 2.61118 5.61996 5.54621 7.53995 8.02566 11.551 8.49995 9.03888
224 1 3.99154 3.99545 3.89409 9.78758 8.40175 10.2842 2.42264 9.49116
226 1 7.00373 4.14531 3.92486 10.497 10.7654 7.96479 7.47991 9.74241
244 1 3.99028 6.93085 3.92441 10.5649 14.3324 7.55173 10.3776 10.8163
246 1 7.00859 6.98565 4.07303 9.16435 5.89371 5.39971 4.84921 6.81925
424 1 4.05511 4.03101 7.02115 6.19806 7.24024 10.0921 12.3545 7.84345
426 1 6.97648 4.04809 6.82934 6.22745 10.3203 7.48732 7.73127 8.01168
444 1 4.06232 6.95451 6.90045 8.31473 5.10963 6.13425 7.16774 6.51953
445 1 5.5174 5.56777 5.41372 8.39102 12.1947 8.85711 5.26104 9.81428
446 1 6.9749 7.05661 7.00638 3.3594 9.28601 2.63863 13.1533 5.09468
228 1 9.8724 4.04846 4.02732 2.86807 7.70032 3.0397 8.22955 4.53603
248 1 9.87276 6.96411 4.12514 4.73215 8.20826 6.09872 3.53415 6.34638
428 1 9.86199 4.07509 6.91434 4.10628 10.0995 8.02591 6.35728 7.41055
447 1 8.36616 5.59318 5.57167 3.24827 3.69865 1.58003 6.84462 2.84232
448 1 9.8083 6.92105 6.94647 3.97846 7.68785 2.4242 8.0975 4.69684
449 1 11.3157 5.48858 5.44677 5.33544 10.0638 4.5506 9.23056 6.64994
230 1 12.7429 3.89481 4.14601 4.83794 7.94407 6.87431 5.22154 6.5521
232 1 15.5841 4.07062 4.12149 10.2887 8.31484 6.68618 7.92505 8.42992
250 1 12.7607 6.89545 4.08821 6.20533 11.7609 5.36107 11.6579 7.77575
252 1 15.7271 6.92903 4.00089 8.80399 6.22213 9.37506 6.3805 8.13373
430 1 12.6104 3.98162 6.94131 9.48496 13.5275 6.076 8.94984 9.69617
432 1 15.6011 3.9743 6.91406 14.285 9.63257 8.48121 8.17884 10.7996
450 1 12.7202 6.91532 7.07136 11.026 13.7684 8.81409 9.14232 11.2028
451 1 14.1931 5.47694 5.56007 6.55229 9.5253 8.38063 7.99854 8.15274
452 1 15.7126 6.86666 7.02673 11.1078 8.00879 12.1915 5.90344 10.436
234 1 18.7124 3.91745 4.0478 11.7467 8.76826 11.2122 3.85578 10.5757
254 1 18.6485 6.92254 3.92441 9.12795 11.5832 15.7158 8.90738 12.1423
434 1 18.787 4.03903 6.94011 7.60646 6.56326 6.1778 6.80307 6.78251
453 1 17.0698 5.40691 5.4404 12.0635 5.51627 8.68884 7.19675 8.75621
454 1 18.7171 6.97498 7.00098 8.08606 5.58595 10.4463 12.4073 8.03944
455 1 20.1931 5.43902 5.50504 12.1452 8.44743 11.8568 7.79348 10.8165
236 1 21.4937 4.0378 3.93567 9.31039 6.02374 16.0446 13.6012 10.4596
238 1 24.5313 4.07358 4.02811 8.15689 6.59394 6.57324 5.7044 7.10802
256 1 21.4777 6.88617 3.91623 6.31693 9.28884 8.97184 5.64014 8.19254
258 1 24.365 7.02665 4.00792 12.4996 8.03102 10.2865 4.63775 10.2724
436 1 21.5179 3.9892 7.10594 7.2059 10.383 12.3666 8.86034 9.98514
438 1 24.4782 4.04325 6.88542 10.5249 8.51718 4.88972 5.92118 7.97727
456 1 21.6173 6.93398 6.90884 5.87438 9.27248 9.61473 4.77785 8.25386
457 1 22.997 5.51089 5.40587 10.7358 8.84171 10.2764 4.30294 9.95131
458 1 24.4876 6.94822 7.01929 8.48124 8.04513 11.179 5.7007 9.23513
441 1 -0.288549 5.55232 5.34989 9.17863 6.93392 11.6158 5.75934 9.24277
240 1 27.4386 4.08398 3.83641 5.17373 7.81612 6.08592 8.12499 6.35859
260 1 27.5052 7.00435 4.05675 13.2202 6.03281 10.4692 7.74425 9.9074
440 1 27.4307 3.97755 6.83557 7.66808 7.39364 8.15915 6.03938 7.74029
459 1 26.0131 5.49893 5.44274 14.0756 9.70699 9.38807 8.12103 11.0569
460 1 27.3963 6.98782 6.89525 10.2936 10.2657 11.0321 5.29468 10.5304
262 1 1.11126 9.98297 3.98092 6.60268 15.2226 9.90545 9.09462 10.5769
462 1 0.916089 9.9191 6.92482 13.1079 14.1865 8.92053 6.95015 12.0716
463 1 2.63702 8.38145 5.50418 8.32295 8.64089 10.4208 3.07644 9.12823
481 1 28.9112 11.4663 5.47844 9.76621 12.7748 9.18244 10.2758 10.5745
483 1 2.55576 11.3657 5.59972 6.81758 10.7951 11.5491 5.84414 9.72058
264 1 3.94946 9.98384 4.03368 10.9197 12.6359 11.6069 3.69944 11.7208
266 1 6.9161 9.88993 4.07552 11.0805 10.5358 11.9928 4.87476 11.2031
464 1 3.98225 9.87885 6.98704 13.5667 9.8891 10.6641 4.19262 11.3733
465 1 5.41683 8.4768 5.55388 9.85759 12.4349 10.0108 6.68103 10.7678
466 1 6.89524 10.0187 6.97334 10.8376 12.9478 10.6589 2.80013 11.4814
485 1 5.38253 11.5028 5.54685 11.8325 11.3517 13.5391 6.21695 12.2411
268 1 9.82609 9.91511 4.06603 9.74427 11.2705 8.05174 7.96612 9.68885
467 1 8.43187 8.44858 5.52013 10.0895 7.69004 6.23497 4.05465 8.00485
468 1 9.81867 9.99797 7.05861 11.7612 9.67128 7.9998 5.3308 9.81077
469 1 11.308 8.49182 5.60149 11.6877 16.3617 10.6868 5.33116 12.912
487 1 8.50132 11.4105 5.42026 14.4769 10.0861 10.9534 6.61736 11.8388
489 1 11.4013 11.4439 5.49577 7.86248 11.2625 13.1999 7.30904 10.7749
270 1 12.8213 9.98711 4.07977 11.7856 9.93982 9.26116 8.71601 10.3289
272 1 15.7608 9.72559 4.07293 13.4226 11.935 9.9272 8.64849 11.7616
470 1 12.8912 10.0306 7.00535 11.0517 9.95421 8.21652 4.61062 9.74082
471 1 14.1697 8.33283 5.45011 11.4647 11.185 11.6447 5.89438 11.4315
472 1 15.7102 9.76101 6.89889 8.49651 13.4157 8.62503 8.48314 10.1791
491 1 14.2475 11.3424 5.47277 6.2513 13.3637 9.18186 7.9238 9.59896
274 1 18.7587 9.76005 4.04212 9.65008 10.048 8.76548 9.74118 9.48785
473 1 17.17 8.19428 5.55499 8.84062 9.30144 8.98071 1.75649 9.04092
474 1 18.6497 9.82177 6.92015 9.06531 8.37866 11.4721 4.2961 9.63869
475 1 20.0808 8.32753 5.43647 6.19656 10.7848 6.68046 6.03383 7.88728
493 1 17.1508 11.2385 5.44497 13.9938 15.892 11.8861 5.48932 13.924
495 1 20.1489 11.479 5.45068 8.5007 10.0457 5.36186 10.2414 7.96942
276 1 21.6339 9.81111 3.88655 5.47475 11.8811 5.59901 11.8036 7.65162
278 1 24.4191 9.92025 4.06041 7.78872 6.34363 7.52288 10.3073 7.21841
476 1 21.4659 9.97841 6.79778 5.77325 5.69083 7.33001 8.08665 6.2647
477 1 22.935 8.40519 5.49057 5.88101 6.26175 12.7466 7.17871 8.29644
478 1 24.4443 9.76902 6.92249 9.76635 10.0361 5.43686 8.54383 8.41311
497 1 23.07 11.3901 5.56467 7.71192 7.52895 12.1609 7.77431 9.13393
461 1 29.0009 8.42683 5.40729 9.42051 7.10089 6.75948 9.42704 7.76029
280 1 27.5254 9.80594 4.0232 10.7107 6.52413 7.06241 6.3488 8.09907
479 1 25.8318 8.48545 5.37429 8.38552 7.62542 9.71728 7.53272 8.57608
480 1 27.3634 9.70928 6.80526 7.84235 12.2861 10.5747 5.35215 10.2344
499 1 25.9087 11.3519 5.47808 8.67382 9.26663 7.39495 4.30401 8.44513
282 1 1.06797 13.0006 4.12138 7.79793 9.33908 6.31983 7.40957 7.81895
302 1 1.11961 15.7841 3.99388 12.0839 6.32084 5.78258 9.00069 8.06245
482 1 1.1281 13.016 6.85638 6.13739 8.53171 6.10851 5.2029 6.92587
502 1 1.19626 15.7842 7.0009 8.56984 6.24333 8.88533 6.00891 7.8995
503 1 2.59916 14.3294 5.49293 4.04342 5.65365 6.19295 8.43289 5.29667
284 1 3.94585 12.7828 4.03212 7.40465 6.1673 9.97228 11.3858 7.84808
286 1 6.89802 12.8402 3.9995 11.6466 10.6557 14.7358 5.07346 12.346
304 1 4.17606 15.7312 4.08209 8.8523 6.0579 5.66352 5.79123 6.85791
306 1 6.96078 15.6846 3.99611 7.30308 8.07465 10.8522 5.26053 8.74331
484 1 3.89378 12.8103 7.05475 0.798883 5.60865 6.42071 10.6872 4.27608
486 1 6.77393 12.907 7.13839 9.70075 5.15563 8.8841 5.61616 7.91349
504 1 4.06492 15.7481 6.91805 7.15888 2.98512 4.20593 10.3797 4.78331
505 1 5.43184 14.3193 5.60597 9.12731 4.85267 10.0322 12.3469 8.00407
506 1 7.12112 15.7626 7.02937 8.52251 -0.377791 8.75008 11.3243 5.6316
288 1 9.8042 12.9616 4.10712 9.82995 7.18734 8.66187 6.55492 8.55972
308 1 9.86825 15.7105 4.08766 11.2645 6.6582 8.94903 6.58904 8.95724
488 1 10.0068 12.857 7.02591 11.5843 9.1066 10.4192 2.8442 10.37
507 1 8.44378 14.3222 5.51809 13.4934 7.07488 7.32625 11.5425 9.29819
508 1 10.0163 15.7838 6.87467 5.8866 5.43516 4.37663 10.1974 5.2328
509 1 11.5049 14.3528 5.44014 11.5189 10.6246 12.4602 3.78512 11.5346
290 1 12.8598 12.8274 3.99614 12.2216 6.61699 12.4908 8.51217 10.4431
292 1 15.8221 12.9606 4.07185 3.59177 7.16395 2.27672 5.05411 4.34415
310 1 12.922 15.7919 3.97054 12.8137 12.1494 9.19917 7.96593 11.3874
312 1 15.8998 15.8213 4.07729 8.09567 7.74108 8.92441 6.13237 8.25372
490 1 12.8504 12.7919 7.03584 8.01885 6.50114 9.30213 5.7181 7.94071
492 1 15.8418 12.8302 6.96529 7.91113 12.1926 7.75983 5.17953 9.28785
510 1 13.0007 15.7621 6.96646 6.49138 8.03841 5.37649 4.10504 6.63543
511 1 14.3143 14.333 5.43453 9.91964 9.53985 9.24465 9.41853 9.56805
512 1 15.8642 15.77 7.02673 9.40268 9.14884 8.19566 5.38087 8.91573
294 1 18.7483 12.9376 4.01776 3.94861 15.5359 6.80409 11.6853 8.76287
314 1 18.6975 15.9982 4.12328 5.76038 11.1878 9.75613 5.3313 8.90144
494 1 18.5911 12.7 6.98547 7.75464 13.0342 10.789 7.76316 10.5259
513 1 17.3544 14.2343 5.44294 9.75507 12.9849 6.13617 6.68975 9.62537
514 1 18.8268 15.7761 7.08307 7.32804 16.359 9.70854 11.2155 11.1319
515 1 20.2143 14.3858 5.6195 10.6092 5.36684 9.97092 9.46338 8.64899
296 1 21.5395 12.8104 3.99258 9.0589 15.1841 8.77436 12.5711 11.0058
298 1 24.5262 12.8793 4.01564 10.597 11.6081 9.40255 7.52454 10.5359
316 1 21.5883 15.8631 3.98895 11.7891 12.7648 15.2101 8.27486 13.2546
318 1 24.562 15.8553 3.91842 9.15116 7.89327 6.88619 2.56953 7.97687
496 1 21.5534 12.7562 6.99768 9.84744 1.2061 7.07804 9.93049 6.04386
498 1 24.5715 12.861 7.01948 2.34917 10.2804 6.61791 14.5525 6.41581
516 1 21.6583 15.6522 7.05551 -0.681076 7.02076 6.46406 8.82185 4.26791
517 1 23.2009 14.2227 5.56884 12.6625 12.5462 8.6818 6.92223 11.2968
518 1 24.495 15.8521 7.04138 6.64394 10.6212 11.4672 6.47736 9.57745
501 1 28.9021 14.498 5.55211 7.16149 10.8795 8.27767 8.00166 8.77287
300 1 27.4168 12.6948 4.01399 6.11404 11.5884 -0.731748 13.664 5.65691
320 1 27.4287 15.9019 4.063 4.70611 6.69307 6.27969 11.8295 5.89295
500 1 27.3395 12.8364 6.83564 9.45461 14.6026 10.7731 6.16984 11.6101
519 1 26.0439 14.3899 5.41163 8.47432 11.4385 8.18368 7.02653 9.36551
520 1 27.4752 15.842 7.01284 10.7883 8.43119 10.7175 11.7625 9.97899
322 1 1.02277 18.7437 3.92988 6.0917 4.35765 7.21138 8.40758 5.88691