# vtk DataFile Version 3.0
# Voxel grid data written by Ovito 3.8.1
ASCII
DATASET STRUCTURED_POINTS
DIMENSIONS 30 30 1
ORIGIN -4.8357463486 -4.8357463486 -4.8357463486
SPACING 3.3198830899 3.3198830899 1.0
POINT_DATA 900

SCALARS Unity double 1
LOOKUP_TABLE default
0.0674127578 0.0646798082 0.0655907914 0.063768825 0.0710566907 0.0601248921 0.063768825 0.0646798082 0.0628578418 0.0646798082 0.063768825 0.0646798082 0.0564809593 0.068323741 0.0573919425 0.0537480096 0.0665017746 0.0628578418 0.0619468585 0.0628578418 0.0601248921 0.0573919425 0.0601248921 0.0573919425 0.0737896403 0.0528370264 0.0628578418 0.0583029257 0.068323741 0.0674127578 
0.0674127578 0.0610358753 0.0619468585 0.0628578418 0.0583029257 0.0674127578 0.0628578418 0.0592139089 0.0674127578 0.0482821103 0.0719676739 0.068323741 0.0674127578 0.063768825 0.0674127578 0.063768825 0.0665017746 0.0728786571 0.0601248921 0.0601248921 0.0601248921 0.0692347243 0.0655907914 0.0665017746 0.0564809593 0.0592139089 0.0674127578 0.063768825 0.0674127578 0.0619468585 
0.063768825 0.0646798082 0.0592139089 0.063768825 0.0628578418 0.0728786571 0.0674127578 0.0655907914 0.0573919425 0.068323741 0.0546589928 0.0646798082 0.0610358753 0.0628578418 0.0628578418 0.0646798082 0.0610358753 0.0610358753 0.0619468585 0.0628578418 0.063768825 0.0573919425 0.0619468585 0.0674127578 0.063768825 0.0619468585 0.0564809593 0.0601248921 0.0592139089 0.0628578418 
0.0610358753 0.0546589928 0.063768825 0.068323741 0.0665017746 0.0674127578 0.0619468585 0.0646798082 0.0692347243 0.0583029257 0.0592139089 0.0628578418 0.0646798082 0.0619468585 0.0628578418 0.0665017746 0.063768825 0.063768825 0.063768825 0.0592139089 0.0655907914 0.0610358753 0.0619468585 0.0710566907 0.0573919425 0.0619468585 0.0692347243 0.0674127578 0.063768825 0.063768825 
0.068323741 0.0592139089 0.0601248921 0.0619468585 0.0619468585 0.0628578418 0.0646798082 0.0619468585 0.0601248921 0.0592139089 0.0646798082 0.0628578418 0.0692347243 0.0619468585 0.0710566907 0.0610358753 0.0628578418 0.063768825 0.0655907914 0.0646798082 0.068323741 0.0628578418 0.0628578418 0.0610358753 0.0610358753 0.0665017746 0.0701457075 0.0528370264 0.0573919425 0.0655907914 
0.0583029257 0.063768825 0.0592139089 0.0674127578 0.0573919425 0.0646798082 0.063768825 0.063768825 0.0619468585 0.0665017746 0.0628578418 0.0583029257 0.0583029257 0.0646798082 0.0701457075 0.063768825 0.0655907914 0.0592139089 0.0646798082 0.0601248921 0.0692347243 0.0619468585 0.0546589928 0.0674127578 0.0610358753 0.0619468585 0.0646798082 0.0701457075 0.0646798082 0.0674127578 
0.0646798082 0.063768825 0.0592139089 0.0646798082 0.0692347243 0.0601248921 0.0610358753 0.068323741 0.0564809593 0.0719676739 0.0665017746 0.0546589928 0.0665017746 0.0610358753 0.0610358753 0.0628578418 0.063768825 0.068323741 0.0646798082 0.0628578418 0.0592139089 0.0601248921 0.0737896403 0.0610358753 0.0728786571 0.0592139089 0.063768825 0.0528370264 0.0710566907 0.0628578418 
0.0610358753 0.0619468585 0.0665017746 0.0655907914 0.0628578418 0.063768825 0.0665017746 0.0665017746 0.0628578418 0.0592139089 0.0728786571 0.0655907914 0.063768825 0.0655907914 0.0655907914 0.0601248921 0.0610358753 0.0628578418 0.0674127578 0.0628578418 0.0665017746 0.0610358753 0.063768825 0.0655907914 0.0546589928 0.0737896403 0.0665017746 0.05101506 0.0692347243 0.0610358753 
0.0692347243 0.0619468585 0.0601248921 0.0628578418 0.0592139089 0.063768825 0.0655907914 0.063768825 0.0592139089 0.0583029257 0.0628578418 0.063768825 0.0573919425 0.0655907914 0.0655907914 0.0692347243 0.0692347243 0.0655907914 0.063768825 0.055569976 0.0619468585 0.068323741 0.0610358753 0.063768825 0.0601248921 0.0628578418 0.063768825 0.0610358753 0.0619468585 0.0692347243 
0.0655907914 0.0610358753 0.0646798082 0.0674127578 0.0674127578 0.068323741 0.0592139089 0.0619468585 0.0646798082 0.0646798082 0.0728786571 0.0592139089 0.0783445564 0.0546589928 0.0610358753 0.0655907914 0.063768825 0.0619468585 0.0592139089 0.0655907914 0.0601248921 0.0601248921 0.0701457075 0.0564809593 0.0665017746 0.0701457075 0.0592139089 0.068323741 0.068323741 0.063768825 
0.0619468585 0.0610358753 0.0628578418 0.0628578418 0.0619468585 0.063768825 0.0655907914 0.068323741 0.0619468585 0.063768825 0.0646798082 0.063768825 0.0601248921 0.0628578418 0.0646798082 0.0592139089 0.05101506 0.0655907914 0.0592139089 0.0692347243 0.063768825 0.0619468585 0.0646798082 0.0619468585 0.0592139089 0.0674127578 0.0646798082 0.0628578418 0.0601248921 0.063768825 
0.0619468585 0.0619468585 0.0592139089 0.0719676739 0.0592139089 0.0692347243 0.0583029257 0.0665017746 0.0564809593 0.0756116068 0.0601248921 0.0573919425 0.0646798082 0.0610358753 0.0646798082 0.0583029257 0.0665017746 0.0628578418 0.0573919425 0.0655907914 0.0564809593 0.0674127578 0.0610358753 0.0610358753 0.0719676739 0.0610358753 0.0692347243 0.0601248921 0.0655907914 0.0655907914 
0.0619468585 0.0655907914 0.068323741 0.0665017746 0.0564809593 0.0646798082 0.068323741 0.0646798082 0.0628578418 0.0592139089 0.068323741 0.0564809593 0.068323741 0.0619468585 0.063768825 0.0655907914 0.063768825 0.0674127578 0.068323741 0.063768825 0.0601248921 0.063768825 0.063768825 0.0665017746 0.0564809593 0.0619468585 0.0601248921 0.068323741 0.0592139089 0.0610358753 
0.0701457075 0.063768825 0.0692347243 0.0619468585 0.0756116068 0.0583029257 0.0747006235 0.0655907914 0.0592139089 0.063768825 0.055569976 0.0564809593 0.0628578418 0.0601248921 0.0655907914 0.0592139089 0.0537480096 0.068323741 0.0619468585 0.063768825 0.063768825 0.0655907914 0.0610358753 0.0592139089 0.0674127578 0.063768825 0.0628578418 0.0646798082 0.0601248921 0.0601248921 
0.0601248921 0.063768825 0.0628578418 0.0655907914 0.0564809593 0.0646798082 0.0646798082 0.0564809593 0.0665017746 0.0601248921 0.0619468585 0.063768825 0.0583029257 0.0665017746 0.0619468585 0.0592139089 0.0628578418 0.0583029257 0.0665017746 0.0628578418 0.0619468585 0.0601248921 0.0601248921 0.0655907914 0.0674127578 0.0674127578 0.0619468585 0.0674127578 0.0710566907 0.0592139089 
0.0564809593 0.063768825 0.0646798082 0.0674127578 0.0655907914 0.0665017746 0.068323741 0.0646798082 0.0610358753 0.0646798082 0.0628578418 0.0665017746 0.0610358753 0.0592139089 0.0619468585 0.0701457075 0.0628578418 0.0592139089 0.0719676739 0.0601248921 0.0619468585 0.0583029257 0.0674127578 0.0665017746 0.068323741 0.0619468585 0.063768825 0.0573919425 0.0592139089 0.0655907914 
0.0646798082 0.0619468585 0.0573919425 0.0628578418 0.0592139089 0.063768825 0.0655907914 0.0564809593 0.0619468585 0.0701457075 0.0528370264 0.0701457075 0.0592139089 0.0601248921 0.0610358753 0.055569976 0.063768825 0.063768825 0.0674127578 0.0592139089 0.0692347243 0.0610358753 0.0692347243 0.0619468585 0.068323741 0.0564809593 0.063768825 0.0674127578 0.0655907914 0.063768825 
0.0583029257 0.0646798082 0.0665017746 0.063768825 0.0619468585 0.0628578418 0.0619468585 0.0674127578 0.0665017746 0.0619468585 0.0692347243 0.0592139089 0.0619468585 0.0583029257 0.063768825 0.0665017746 0.063768825 0.068323741 0.0619468585 0.0619468585 0.0719676739 0.055569976 0.0655907914 0.0592139089 0.0583029257 0.0710566907 0.063768825 0.0646798082 0.0573919425 0.0710566907 
0.0619468585 0.0592139089 0.0628578418 0.0628578418 0.0610358753 0.0701457075 0.0628578418 0.0601248921 0.0610358753 0.0619468585 0.0619468585 0.063768825 0.0646798082 0.0610358753 0.0674127578 0.0601248921 0.0674127578 0.0619468585 0.0710566907 0.063768825 0.0573919425 0.068323741 0.0655907914 0.0646798082 0.0655907914 0.0610358753 0.0601248921 0.0665017746 0.0610358753 0.063768825 
0.063768825 0.063768825 0.0628578418 0.0728786571 0.0619468585 0.0610358753 0.0583029257 0.0646798082 0.0628578418 0.0701457075 0.0610358753 0.068323741 0.0592139089 0.0665017746 0.063768825 0.0628578418 0.0592139089 0.0728786571 0.0737896403 0.0655907914 0.0601248921 0.0665017746 0.0756116068 0.0601248921 0.0592139089 0.0601248921 0.0592139089 0.0628578418 0.0610358753 0.0573919425 
0.0655907914 0.0610358753 0.0655907914 0.0564809593 0.063768825 0.0601248921 0.0628578418 0.0610358753 0.0610358753 0.0601248921 0.0610358753 0.063768825 0.0583029257 0.0646798082 0.0655907914 0.0628578418 0.068323741 0.0564809593 0.0601248921 0.0628578418 0.0628578418 0.0592139089 0.0546589928 0.0701457075 0.0610358753 0.0710566907 0.0601248921 0.0592139089 0.0665017746 0.0573919425 
0.0710566907 0.0628578418 0.0628578418 0.0701457075 0.0537480096 0.068323741 0.0628578418 0.0628578418 0.063768825 0.0592139089 0.0592139089 0.0646798082 0.0655907914 0.0665017746 0.0619468585 0.0619468585 0.0564809593 0.0737896403 0.0564809593 0.0701457075 0.0592139089 0.0592139089 0.0665017746 0.0601248921 0.0674127578 0.0619468585 0.068323741 0.055569976 0.0646798082 0.0665017746 
0.063768825 0.0628578418 0.0610358753 0.0619468585 0.0655907914 0.0546589928 0.0665017746 0.0665017746 0.0601248921 0.063768825 0.0628578418 0.0546589928 0.0646798082 0.0592139089 0.0610358753 0.068323741 0.063768825 0.0583029257 0.0674127578 0.0646798082 0.0674127578 0.0674127578 0.0601248921 0.0573919425 0.0610358753 0.0619468585 0.0592139089 0.0665017746 0.0583029257 0.063768825 
0.0601248921 0.0601248921 0.0601248921 0.0610358753 0.0628578418 0.068323741 0.0573919425 0.0655907914 0.0646798082 0.0573919425 0.063768825 0.063768825 0.0655907914 0.0628578418 0.0583029257 0.0628578418 0.063768825 0.0564809593 0.0610358753 0.0646798082 0.0619468585 0.0583029257 0.0646798082 0.0728786571 0.055569976 0.0674127578 0.0655907914 0.0665017746 0.0573919425 0.0655907914 
0.0573919425 0.0728786571 0.0619468585 0.0665017746 0.0610358753 0.0583029257 0.0646798082 0.063768825 0.0665017746 0.0619468585 0.0692347243 0.0655907914 0.0628578418 0.0646798082 0.0628578418 0.0619468585 0.0665017746 0.0665017746 0.0564809593 0.0610358753 0.063768825 0.0665017746 0.055569976 0.063768825 0.063768825 0.063768825 0.0592139089 0.0610358753 0.0665017746 0.0628578418 
0.0665017746 0.0610358753 0.0674127578 0.0655907914 0.0674127578 0.0628578418 0.0583029257 0.0610358753 0.0601248921 0.0655907914 0.0564809593 0.0655907914 0.055569976 0.0592139089 0.0610358753 0.0610358753 0.0628578418 0.0610358753 0.063768825 0.0655907914 0.0601248921 0.0610358753 0.0646798082 0.0655907914 0.0583029257 0.0592139089 0.0619468585 0.0628578418 0.0719676739 0.0601248921 
0.0610358753 0.0610358753 0.063768825 0.0665017746 0.0610358753 0.0610358753 0.0610358753 0.055569976 0.0655907914 0.0665017746 0.0646798082 0.063768825 0.0601248921 0.0665017746 0.0610358753 0.0646798082 0.0646798082 0.0564809593 0.068323741 0.0573919425 0.0601248921 0.0701457075 0.0610358753 0.063768825 0.0701457075 0.0610358753 0.0646798082 0.0646798082 0.0601248921 0.0655907914 
0.068323741 0.0628578418 0.0546589928 0.0619468585 0.0710566907 0.0655907914 0.0646798082 0.0628578418 0.063768825 0.0537480096 0.0583029257 0.0583029257 0.0619468585 0.0619468585 0.0665017746 0.0592139089 0.0619468585 0.0692347243 0.0646798082 0.0655907914 0.0701457075 0.063768825 0.0692347243 0.0646798082 0.068323741 0.063768825 0.0719676739 0.0610358753 0.0655907914 0.0628578418 
0.063768825 0.0628578418 0.0646798082 0.0628578418 0.0546589928 0.0646798082 0.0655907914 0.0610358753 0.0583029257 0.0619468585 0.063768825 0.063768825 0.0601248921 0.0619468585 0.055569976 0.0710566907 0.0601248921 0.0692347243 0.0583029257 0.0665017746 0.0610358753 0.0646798082 0.063768825 0.0619468585 0.0601248921 0.0674127578 0.0628578418 0.0655907914 0.063768825 0.0665017746 
0.0601248921 0.0619468585 0.0601248921 0.0592139089 0.0628578418 0.0665017746 0.0692347243 0.0583029257 0.0665017746 0.0665017746 0.0646798082 0.0619468585 0.0737896403 0.0610358753 0.0646798082 0.0674127578 0.0583029257 0.0628578418 0.0737896403 0.0674127578 0.0665017746 0.0665017746 0.0619468585 0.0665017746 0.0573919425 0.0573919425 0.063768825 0.068323741 0.0564809593 0.0601248921 
