# vtk DataFile Version 3.0
# Voxel grid data written by Ovito 3.8.1
ASCII
DATASET STRUCTURED_POINTS
DIMENSIONS 30 30 30
ORIGIN -4.8357463486 -4.8357463486 -4.8357463486
SPACING 3.3198830899 3.3198830899 3.3198830899
POINT_DATA 27000

SCALARS Unity double 1
LOOKUP_TABLE default
0.0273294964 0.1093179857 0.0546589928 0.0819884892 0.1093179857 0.0273294964 0.0273294964 0.0273294964 0.0546589928 0.0546589928 0.0546589928 0.0273294964 0.0546589928 0.0273294964 0.0546589928 0.0273294964 0.0819884892 0.0546589928 0.0546589928 0.1366474821 0.0273294964 0.0273294964 0.1093179857 0.0546589928 0.0546589928 0.0819884892 0.0546589928 0.0273294964 0.0546589928 0.1366474821 
0.0819884892 0.0546589928 0.0273294964 0.0273294964 0.0546589928 0.1093179857 0.0819884892 0.0546589928 0.0819884892 0.0546589928 0.0546589928 0.0546589928 0.0819884892 0.0819884892 0.0546589928 0.0546589928 0.0273294964 0.0546589928 0.0546589928 0.0819884892 0.0546589928 0.0819884892 0.0546589928 0.0546589928 0.0819884892 0.0819884892 0.0819884892 0.0819884892 0.1093179857 0.0546589928 
0.0819884892 0.0273294964 0.1093179857 0.0273294964 0.1093179857 0.0273294964 0.1093179857 0.0546589928 0.0546589928 0.0546589928 0.0546589928 0.0546589928 0.0819884892 0.0273294964 0.0273294964 0.0819884892 0.0273294964 0.0546589928 0.0819884892 0.0546589928 0.0819884892 0.0819884892 0.0546589928 0.0273294964 0.0819884892 0.1093179857 0.0819884892 0.0273294964 0.0546589928 0.0546589928 
0.0546589928 0.0273294964 0.0819884892 0.0819884892 0.0546589928 0.0819884892 0.0546589928 0.0546589928 0.0819884892 0.0546589928 0.0546589928 0.0819884892 0.0546589928 0.0819884892 0.0273294964 0.0546589928 0.0819884892 0.0546589928 0.0819884892 0.0273294964 0.0819884892 0.0273294964 0.0819884892 0.0546589928 0.0273294964 0.0546589928 0.0546589928 0.0546589928 0.0546589928 0.0546589928 
0.0819884892 0.0819884892 0.0273294964 0.0546589928 0.0273294964 0.1366474821 0.0819884892 0.0273294964 0.0546589928 0.0273294964 0.0546589928 0.0273294964 0.0546589928 0.0546589928 0.0546589928 0.0546589928 0.0546589928 0.0273294964 0.1093179857 0.0546589928 0.1093179857 0.0273294964 0.0273294964 0.0546589928 0.0819884892 0.0546589928 0.0546589928 0.0546589928 0.0273294964 0.0819884892 
0.0546589928 0.0546589928 0.0819884892 0.0273294964 0.0819884892 0.0273294964 0.0273294964 0.1093179857 0.0546589928 0.1093179857 0.0546589928 0.0819884892 0.0819884892 0.0546589928 0.1366474821 0.0546589928 0.0819884892 0.0273294964 0.0546589928 0.0273294964 0.0546589928 0.0819884892 0.0819884892 0.0546589928 0.0819884892 0.0819884892 0.0819884892 0.0546589928 0.0546589928 0.1093179857 
0.0819884892 0.0546589928 0.0546589928 0.0546589928 0.0819884892 0.0819884892 0.1093179857 0.0273294964 0.0273294964 0.0546589928 0.0546589928 0.0273294964 0.1093179857 0.0546589928 0.0819884892 0.0546589928 0.0546589928 0.0819884892 0.0819884892 0.0273294964 0.0546589928 0.0273294964 0.0819884892 0.0819884892 0.0273294964 0.0546589928 0.0546589928 0.0273294964 0.0819884892 0.0546589928 
0.0273294964 0.0819884892 0.0546589928 0.0819884892 0.0546589928 0.0273294964 0.0273294964 0.0819884892 0.0273294964 0.0819884892 0.0819884892 0.0273294964 0.0546589928 0.0819884892 0.0273294964 0.0546589928 0.0273294964 0.0546589928 0.0819884892 0.0546589928 0.0819884892 0.0546589928 0.0546589928 0.0546589928 0.0819884892 0.0546589928 0.1093179857 0.0546589928 0.0546589928 0.0819884892 
0.0819884892 0.0546589928 0.1093179857 0.0819884892 0.0546589928 0.1093179857 0.0273294964 0.0273294964 0.0819884892 0.0546589928 0.0546589928 0.1093179857 0.0819884892 0.0546589928 0.0273294964 0.0819884892 0.0819884892 0.0819884892 0.0819884892 0.0546589928 0.0273294964 0.0819884892 0.0546589928 0.1093179857 0.1093179857 0.0546589928 0.0273294964 0.0546589928 0.0819884892 0.1093179857 
0.0273294964 0.0819884892 0.0546589928 0.0546589928 0.0273294964 0.0273294964 0.0819884892 0.0273294964 0.0546589928 0.0546589928 0.0819884892 0.0819884892 0.0819884892 0.0546589928 0.1093179857 0.0273294964 0.0273294964 0.0546589928 0.0546589928 0.1093179857 0.0546589928 0.0546589928 0.0819884892 0.0819884892 0.0546589928 0.0819884892 0.0546589928 0.1093179857 0.0819884892 0.0546589928 
0.0546589928 0.0273294964 0.0819884892 0.0819884892 0.0273294964 0.0546589928 0.0546589928 0.1366474821 0.0546589928 0.1093179857 0.0273294964 0.0546589928 0.0546589928 0.0273294964 0.0273294964 0.0546589928 0.0546589928 0.0546589928 0.0819884892 0.0819884892 0.0546589928 0.1093179857 0.0819884892 0.1093179857 0.0546589928 0.0819884892 0.0546589928 0.0273294964 0.0819884892 0.1093179857 
0.0546589928 0.0819884892 0.0546589928 0.0819884892 0.0546589928 0.0546589928 0.0819884892 0.0273294964 0.0819884892 0.0819884892 0.0273294964 0.0546589928 0.1093179857 0.0546589928 0.1093179857 0.0546589928 0.0819884892 0.0546589928 0.0546589928 0.0819884892 0.0273294964 0.0546589928 0.0273294964 0.0273294964 0.0273294964 0.0546589928 0.0546589928 0.0273294964 0.0546589928 0.0546589928 
0.0546589928 0.0546589928 0.0546589928 0.1093179857 0.0819884892 0.0546589928 0.0273294964 0.0546589928 0.0819884892 0.0819884892 0.0273294964 0.0273294964 0.0819884892 0.0819884892 0.0546589928 0.0819884892 0.0819884892 0.0819884892 0.0819884892 0.0546589928 0.0546589928 0.0546589928 0.0819884892 0.0546589928 0.0273294964 0.0819884892 0.0546589928 0.0546589928 0.0819884892 0.0819884892 
0.0819884892 0.0546589928 0.1366474821 0.0819884892 0.0546589928 0.0819884892 0.0546589928 0.0546589928 0.0546589928 0.0273294964 0.0546589928 0.0546589928 0.0546589928 0.0819884892 0.0819884892 0.0273294964 0.0546589928 0.0546589928 0.0546589928 0.0546589928 0.0819884892 0.0546589928 0.0546589928 0.0546589928 0.0273294964 0.0819884892 0.1093179857 0.0546589928 0.0546589928 0.0819884892 
0.1093179857 0.0273294964 0.0546589928 0.1093179857 0.0273294964 0.0819884892 0.0273294964 0.0819884892 0.0273294964 0.0273294964 0.0546589928 0.0546589928 0.0819884892 0.0273294964 0.0546589928 0.0819884892 0.0546589928 0.0546589928 0.1093179857 0.0546589928 0.0546589928 0.0273294964 0.0546589928 0.0819884892 0.0546589928 0.0819884892 0.0546589928 0.0273294964 0.0273294964 0.0546589928 
0.0273294964 0.0819884892 0.0273294964 0.0819884892 0.0819884892 0.1093179857 0.0273294964 0.0819884892 0.0546589928 0.0273294964 0.1093179857 0.0819884892 0.0273294964 0.0819884892 0.0546589928 0.0819884892 0.0819884892 0.0546589928 0.0819884892 0.0273294964 0.0273294964 0.1093179857 0.0819884892 0.0546589928 0.0819884892 0.0546589928 0.0546589928 0.1093179857 0.0273294964 0.0273294964 
0.0273294964 0.0546589928 0.0273294964 0.1093179857 0.0 0.0546589928 0.0819884892 0.0819884892 0.0273294964 0.0546589928 0.0546589928 0.0273294964 0.1093179857 0.0546589928 0.0546589928 0.0546589928 0.0546589928 0.0819884892 0.0546589928 0.0546589928 0.0819884892 0.0546589928 0.0819884892 0.0546589928 0.0819884892 0.0546589928 0.0819884892 0.0273294964 0.1093179857 0.1093179857 
0.0819884892 0.0546589928 0.0819884892 0.0546589928 0.1093179857 0.0546589928 0.0546589928 0.0546589928 0.0819884892 0.0546589928 0.0546589928 0.0273294964 0.1093179857 0.0546589928 0.0819884892 0.0819884892 0.0819884892 0.0546589928 0.0819884892 0.0546589928 0.1093179857 0.0273294964 0.0546589928 0.0546589928 0.0546589928 0.0273294964 0.0819884892 0.1093179857 0.0819884892 0.0819884892 
0.0546589928 0.0546589928 0.0546589928 0.0546589928 0.0546589928 0.1093179857 0.0819884892 0.0819884892 0.0273294964 0.0819884892 0.0546589928 0.0546589928 0.0546589928 0.0546589928 0.0546589928 0.0273294964 0.1093179857 0.1093179857 0.0546589928 0.0819884892 0.0546589928 0.0819884892 0.0819884892 0.0819884892 0.0273294964 0.1093179857 0.0546589928 0.0546589928 0.0273294964 0.0546589928 
0.0819884892 0.1093179857 0.0819884892 0.0273294964 0.0819884892 0.0273294964 0.0546589928 0.0546589928 0.0546589928 0.0819884892 0.0546589928 0.0546589928 0.0546589928 0.0546589928 0.0819884892 0.0546589928 0.0546589928 0.0273294964 0.0819884892 0.0819884892 0.0546589928 0.0819884892 0.0819884892 0.0546589928 0.0546589928 0.0546589928 0.0546589928 0.1093179857 0.0546589928 0.0273294964 
0.0819884892 0.0273294964 0.0546589928 0.0546589928 0.0546589928 0.0273294964 0.0819884892 0.0819884892 0.0273294964 0.0546589928 0.0546589928 0.0819884892 0.0819884892 0.0273294964 0.0273294964 0.0819884892 0.0546589928 0.0546589928 0.0546589928 0.0273294964 0.0546589928 0.0273294964 0.0546589928 0.0819884892 0.0546589928 0.0819884892 0.0546589928 0.0546589928 0.0273294964 0.0546589928 
0.1093179857 0.0819884892 0.0546589928 0.0819884892 0.0546589928 0.0546589928 0.0546589928 0.0819884892 0.0546589928 0.0819884892 0.1093179857 0.0273294964 0.0546589928 0.0546589928 0.0819884892 0.0273294964 0.0546589928 0.1093179857 0.0273294964 0.1093179857 0.1093179857 0.0819884892 0.1093179857 0.0819884892 0.0819884892 0.0819884892 0.0546589928 0.0273294964 0.1366474821 0.0546589928 
0.0273294964 0.0819884892 0.0273294964 0.0273294964 0.1093179857 0.0546589928 0.0819884892 0.0546589928 0.1093179857 0.0273294964 0.0546589928 0.0546589928 0.0819884892 0.0273294964 0.0546589928 0.0546589928 0.0819884892 0.0819884892 0.0546589928 0.0546589928 0.0273294964 0.0819884892 0.0273294964 0.0273294964 0.0819884892 0.0546589928 0.0273294964 0.0273294964 0.0819884892 0.0273294964 
0.0546589928 0.0546589928 0.0819884892 0.0546589928 0.0273294964 0.1093179857 0.0273294964 0.0273294964 0.0546589928 0.0819884892 0.0546589928 0.0546589928 0.0546589928 0.0273294964 0.0273294964 0.0546589928 0.0819884892 0.0273294964 0.0819884892 0.0546589928 0.0273294964 0.0819884892 0.0546589928 0.0546589928 0.0546589928 0.0546589928 0.1093179857 0.0546589928 0.0546589928 0.0819884892 
0.0546589928 0.0819884892 0.0546589928 0.1093179857 0.0819884892 0.0819884892 0.0546589928 0.0819884892 0.0819884892 0.0273294964 0.0273294964 0.0273294964 0.0819884892 0.1093179857 0.0273294964 0.1093179857 0.0546589928 0.0546589928 0.0273294964 0.0819884892 0.0273294964 0.1366474821 0.0273294964 0.0546589928 0.0546589928 0.1093179857 0.0546589928 0.0819884892 0.1093179857 0.0273294964 
0.0273294964 0.0546589928 0.0546589928 0.0546589928 0.0273294964 0.0819884892 0.0546589928 0.0546589928 0.0273294964 0.0819884892 0.0273294964 0.0819884892 0.0819884892 0.0819884892 0.0819884892 0.0273294964 0.0819884892 0.0819884892 0.0819884892 0.0819884892 0.0546589928 0.0273294964 0.0546589928 0.0819884892 0.0273294964 0.0546589928 0.0546589928 0.0819884892 0.0546589928 0.0546589928 
0.0819884892 0.1093179857 0.0546589928 0.0546589928 0.0273294964 0.0819884892 0.0819884892 0.1093179857 0.0546589928 0.0273294964 0.0819884892 0.0819884892 0.0546589928 0.0546589928 0.0546589928 0.0546589928 0.0546589928 0.0546589928 0.0819884892 0.0273294964 0.0546589928 0.1093179857 0.0546589928 0.0819884892 0.0546589928 0.0819884892 0.0546589928 0.0819884892 0.1093179857 0.0819884892 
0.0546589928 0.0546589928 0.0273294964 0.0273294964 0.0546589928 0.1093179857 0.0546589928 0.0273294964 0.0819884892 0.0273294964 0.0546589928 0.0273294964 0.1093179857 0.0273294964 0.0546589928 0.0546589928 0.0819884892 0.0273294964 0.0273294964 0.0546589928 0.0546589928 0.0546589928 0.0546589928 0.1093179857 0.0273294964 0.0546589928 0.1093179857 0.0273294964 0.0546589928 0.0819884892 
0.0546589928 0.0546589928 0.0819884892 0.0546589928 0.0819884892 0.0546589928 0.0273294964 0.0273294964 0.0546589928 0.0546589928 0.0819884892 0.0273294964 0.0819884892 0.0273294964 0.1093179857 0.0546589928 0.0546589928 0.0546589928 0.0819884892 0.0273294964 0.0546589928 0.0273294964 0.0819884892 0.0546589928 0.0273294964 0.1366474821 0.0273294964 0.0273294964 0.0273294964 0.0819884892 
0.0546589928 0.0546589928 0.0546589928 0.0546589928 0.0273294964 0.0819884892 0.0819884892 0.0819884892 0.0546589928 0.0546589928 0.0819884892 0.1093179857 0.0819884892 0.0819884892 0.0273294964 0.0819884892 0.0273294964 0.0273294964 0.0546589928 0.0819884892 0.0546589928 0.0819884892 0.0546589928 0.0546589928 0.0819884892 0.0546589928 0.0546589928 0.1093179857 0.0546589928 0.0546589928 
0.0819884892 0.1093179857 0.0819884892 0.0546589928 0.0546589928 0.0546589928 0.0546589928 0.0819884892 0.0546589928 0.0546589928 0.0546589928 0.1093179857 0.0546589928 0.0273294964 0.0546589928 0.0819884892 0.0273294964 0.0819884892 0.0546589928 0.0273294964 0.0546589928 0.1093179857 0.0546589928 0.0546589928 0.0546589928 0.0273294964 0.1093179857 0.0546589928 0.0273294964 0.0546589928 
0.0273294964 0.0546589928 0.0273294964 0.0546589928 0.0546589928 0.0273294964 0.0546589928 0.0273294964 0.1093179857 0.0273294964 0.1366474821 0.0546589928 0.0273294964 0.1093179857 0.0273294964 0.0546589928 0.1093179857 0.0819884892 0.0819884892 0.0546589928 0.0819884892 0.0546589928 0.0546589928 0.0819884892 0.0546589928 0.0819884892 0.0546589928 0.0546589928 0.0273294964 0.0819884892 
0.0273294964 0.0819884892 0.0546589928 0.0819884892 0.1093179857 0.0546589928 0.0819884892 0.0273294964 0.0273294964 0.0819884892 0.0273294964 0.0546589928 0.0546589928 0.0273294964 0.0546589928 0.0546589928 0.0546589928 0.0819884892 0.0546589928 0.0546589928 0.0546589928 0.0546589928 0.0819884892 0.0546589928 0.0819884892 0.0273294964 0.0273294964 0.0546589928 0.0546589928 0.0546589928 
0.1366474821 0.1093179857 0.0546589928 0.1093179857 0.0819884892 0.0546589928 0.0546589928 0.1093179857 0.0546589928 0.1093179857 0.0546589928 0.0819884892 0.0273294964 0.0546589928 0.0819884892 0.1093179857 0.0273294964 0.0273294964 0.0273294964 0.0546589928 0.0546589928 0.0273294964 0.0546589928 0.1093179857 0.0819884892 0.0546589928 0.1093179857 0.0819884892 0.1093179857 0.0546589928 
0.0546589928 0.0273294964 0.1093179857 0.0819884892 0.0819884892 0.0546589928 0.0273294964 0.0819884892 0.0546589928 0.0819884892 0.0819884892 0.0819884892 0.0546589928 0.1093179857 0.0819884892 0.0273294964 0.1093179857 0.0819884892 0.0819884892 0.0819884892 0.0819884892 0.0273294964 0.0819884892 0.0546589928 0.0273294964 0.0819884892 0.0546589928 0.0546589928 0.0546589928 0.0273294964 
0.0273294964 0.0819884892 0.0546589928 0.0546589928 0.0273294964 0.0546589928 0.0819884892 0.0273294964 0.0546589928 0.0546589928 0.0546589928 0.0273294964 0.0273294964 0.0546589928 0.0273294964 0.0819884892 0.1093179857 0.0273294964 0.1093179857 0.0546589928 0.0546589928 0.0546589928 0.0273294964 0.0546589928 0.0273294964 0.1093179857 0.0273294964 0.0273294964 0.0819884892 0.0819884892 
0.0273294964 0.0819884892 0.0273294964 0.0819884892 0.0273294964 0.1366474821 0.0546589928 0.0546589928 0.0546589928 0.0546589928 0.0819884892 0.0546589928 0.0819884892 0.0819884892 0.1093179857 0.0819884892 0.0546589928 0.0273294964 0.0819884892 0.0546589928 0.0546589928 0.0819884892 0.0546589928 0.0546589928 0.0819884892 0.0273294964 0.0819884892 0.0546589928 0.0546589928 0.0273294964 
0.0819884892 0.0819884892 0.0819884892 0.0819884892 0.0273294964 0.0546589928 0.1093179857 0.0546589928 0.0819884892 0.0819884892 0.0819884892 0.0273294964 0.0819884892 0.0546589928 0.0546589928 0.0273294964 0.0819884892 0.0819884892 0.0546589928 0.0819884892 0.0546589928 0.0273294964 0.0819884892 0.0546589928 0.0546589928 0.0819884892 0.0546589928 0.0273294964 0.1093179857 0.0819884892 
0.0819884892 0.0273294964 0.0819884892 0.0273294964 0.0273294964 0.0546589928 0.0819884892 0.0546589928 0.0273294964 0.1093179857 0.1093179857 0.0819884892 0.0273294964 0.0819884892 0.0546589928 0.0546589928 0.0546589928 0.0273294964 0.0819884892 0.0546589928 0.0819884892 0.0546589928 0.0819884892 0.0273294964 0.0546589928 0.0273294964 0.0546589928 0.0546589928 0.0546589928 0.0819884892 
0.0819884892 0.0819884892 0.0819884892 0.0546589928 0.0819884892 0.0546589928 0.0546589928 0.0546589928 0.0819884892 0.0273294964 0.0546589928 0.0273294964 0.0546589928 0.0546589928 0.0546589928 0.0819884892 0.0546589928 0.0546589928 0.0273294964 0.0273294964 0.1093179857 0.0273294964 0.0819884892 0.0273294964 0.1093179857 0.0819884892 0.0819884892 0.0273294964 0.0546589928 0.1366474821 
0.1093179857 0.0273294964 0.0546589928 0.0273294964 0.0546589928 0.0546589928 0.0546589928 0.0546589928 0.0273294964 0.0546589928 0.0546589928 0.1093179857 0.0819884892 0.0819884892 0.0273294964 0.0546589928 0.0546589928 0.0819884892 0.0273294964 0.1093179857 0.0546589928 0.0273294964 0.0819884892 0.0546589928 0.0819884892 0.1093179857 0.0546589928 0.0546589928 0.0273294964 0.0819884892 
0.0546589928 0.0819884892 0.0273294964 0.0273294964 0.0546589928 0.1093179857 0.0273294964 0.0546589928 0.0273294964 0.0819884892 0.1093179857 0.0819884892 0.0546589928 0.1093179857 0.1093179857 0.0546589928 0.0546589928 0.0546589928 0.0546589928 0.0819884892 0.0819884892 0.1366474821 0.0546589928 0.1093179857 0.0819884892 0.0546589928 0.0546589928 0.1366474821 0.0819884892 0.0546589928 
0.1093179857 0.0819884892 0.1093179857 0.0273294964 0.0273294964 0.0273294964 0.0546589928 0.0819884892 0.0546589928 0.0273294964 0.0819884892 0.0819884892 0.0819884892 0.0273294964 0.0546589928 0.0819884892 0.0819884892 0.0819884892 0.0819884892 0.0273294964 0.0819884892 0.0819884892 0.0546589928 0.0819884892 0.0546589928 0.0819884892 0.1093179857 0.0546589928 0.0273294964 0.0273294964 
0.0819884892 0.0273294964 0.0273294964 0.0546589928 0.1093179857 0.0273294964 0.1093179857 0.0819884892 0.0273294964 0.1093179857 0.0819884892 0.0546589928 0.0819884892 0.0819884892 0.0546589928 0.0546589928 0.0546589928 0.1093179857 0.0273294964 0.1093179857 0.0546589928 0.0819884892 0.0819884892 0.0819884892 0.1093179857 0.0819884892 0.0546589928 0.1093179857 0.0819884892 0.0546589928 
0.0546589928 0.0546589928 0.0546589928 0.0546589928 0.0819884892 0.0546589928 0.0273294964 0.0546589928 0.0546589928 0.0819884892 0.0819884892 0.0546589928 0.0819884892 0.0273294964 0.1093179857 0.0546589928 0.0273294964 0.0546589928 0.0273294964 0.0546589928 0.0546589928 0.0819884892 0.0819884892 0.0273294964 0.0273294964 0.0819884892 0.0819884892 0.0273294964 0.0819884892 0.0819884892 
0.0273294964 0.0546589928 0.0546589928 0.0546589928 0.1093179857 0.0819884892 0.0819884892 0.1093179857 0.0546589928 0.0546589928 0.0546589928 0.0273294964 0.0546589928 0.0273294964 0.0273294964 0.0819884892 0.0819884892 0.0819884892 0.0546589928 0.1093179857 0.0819884892 0.0819884892 0.0819884892 0.0273294964 0.1093179857 0.0546589928 0.0546589928 0.0273294964 0.1093179857 0.0273294964 
0.0819884892 0.0546589928 0.0273294964 0.0546589928 0.0546589928 0.0546589928 0.0546589928 0.0273294964 0.1093179857 0.0546589928 0.0546589928 0.1366474821 0.0273294964 0.1093179857 0.0546589928 0.0546589928 0.0819884892 0.0273294964 0.0819884892 0.0546589928 0.0273294964 0.1093179857 0.0819884892 0.0819884892 0.0546589928 0.0819884892 0.1093179857 0.0546589928 0.0273294964 0.0546589928 
0.0546589928 0.0819884892 0.0819884892 0.0273294964 0.1366474821 0.0546589928 0.0546589928 0.0546589928 0.0819884892 0.0819884892 0.1093179857 0.0819884892 0.0819884892 0.0546589928 0.0819884892 0.0819884892 0.0273294964 0.0819884892 0.0546589928 0.0546589928 0.0546589928 0.0546589928 0.0819884892 0.0546589928 0.1093179857 0.0546589928 0.0273294964 0.1093179857 0.0273294964 0.0819884892 
0.0546589928 0.0819884892 0.0273294964 0.1093179857 0.0546589928 0.0819884892 0.0546589928 0.0546589928 0.1093179857 0.0546589928 0.0546589928 0.0273294964 0.0546589928 0.0273294964 0.0819884892 0.0546589928 0.0546589928 0.0546589928 0.0546589928 0.0819884892 0.0273294964 0.0546589928 0.0819884892 0.0819884892 0.0819884892 0.0546589928 0.0273294964 0.0819884892 0.0546589928 0.0546589928 
0.1093179857 0.0546589928 0.0546589928 0.0819884892 0.0819884892 0.1093179857 0.0273294964 0.1093179857 0.0546589928 0.0546589928 0.0819884892 0.0819884892 0.0546589928 0.0546589928 0.0546589928 0.1093179857 0.0546589928 0.1093179857 0.0273294964 0.1093179857 0.0546589928 0.0819884892 0.0819884892 0.0546589928 0.0273294964 0.0819884892 0.0546589928 0.0546589928 0.0546589928 0.0819884892 
0.0273294964 0.0819884892 0.0546589928 0.1093179857 0.0546589928 0.0546589928 0.0273294964 0.0546589928 0.0546589928 0.0546589928 0.0819884892 0.0273294964 0.0546589928 0.0273294964 0.0819884892 0.0546589928 0.0273294964 0.0273294964 0.0819884892 0.0546589928 0.0546589928 0.0546589928 0.0546589928 0.0819884892 0.0546589928 0.0273294964 0.0273294964 0.0273294964 0.0546589928 0.0819884892 
0.0819884892 0.0546589928 0.0819884892 0.0273294964 0.0273294964 0.0819884892 0.0819884892 0.0546589928 0.0273294964 0.0273294964 0.0546589928 0.0546589928 0.1093179857 0.0546589928 0.0546589928 0.0546589928 0.0819884892 0.0546589928 0.0819884892 0.0546589928 0.0546589928 0.0273294964 0.0546589928 0.0546589928 0.0819884892 0.0273294964 0.0819884892 0.0819884892 0.0546589928 0.0546589928 
0.0819884892 0.0819884892 0.0273294964 0.1093179857 0.0546589928 0.0273294964 0.0819884892 0.0546589928 0.0273294964 0.1093179857 0.0546589928 0.1093179857 0.0546589928 0.0273294964 0.0819884892 0.0819884892 0.0546589928 0.0273294964 0.0546589928 0.0819884892 0.1093179857 0.0273294964 0.0546589928 0.0819884892 0.0819884892 0.0546589928 0.1093179857 0.0546589928 0.0273294964 0.0546589928 
0.1093179857 0.0546589928 0.0546589928 0.0273294964 0.0819884892 0.0546589928 0.0819884892 0.0546589928 0.0273294964 0.0546589928 0.0273294964 0.0819884892 0.1093179857 0.0546589928 0.0819884892 0.0546589928 0.0273294964 0.0546589928 0.0546589928 0.0273294964 0.1093179857 0.0273294964 0.0819884892 0.0546589928 0.0273294964 0.0819884892 0.0819884892 0.0546589928 0.0819884892 0.0546589928 
0.0819884892 0.0546589928 0.0819884892 0.0546589928 0.0546589928 0.0273294964 0.0819884892 0.0273294964 0.0273294964 0.0546589928 0.1093179857 0.0273294964 0.0273294964 0.0273294964 0.0546589928 0.0546589928 0.0819884892 0.0546589928 0.0546589928 0.0546589928 0.0819884892 0.0546589928 0.0546589928 0.0273294964 0.0819884892 0.0546589928 0.0273294964 0.0819884892 0.0273294964 0.0819884892 
0.0273294964 0.0546589928 0.0273294964 0.0819884892 0.0273294964 0.0819884892 0.0546589928 0.0546589928 0.0546589928 0.0546589928 0.0273294964 0.0546589928 0.0819884892 0.0273294964 0.0273294964 0.0546589928 0.0819884892 0.0819884892 0.0546589928 0.0273294964 0.0546589928 0.0819884892 0.0546589928 0.0819884892 0.0273294964 0.0819884892 0.0273294964 0.0819884892 0.1093179857 0.0819884892 
0.0546589928 0.0273294964 0.0546589928 0.1093179857 0.0819884892 0.0819884892 0.0273294964 0.0273294964 0.0546589928 0.0819884892 0.0546589928 0.0546589928 0.1093179857 0.0273294964 0.0273294964 0.0819884892 0.0273294964 0.0273294964 0.0273294964 0.0819884892 0.0273294964 0.0546589928 0.0819884892 0.0546589928 0.0819884892 0.0546589928 0.0546589928 0.1093179857 0.0546589928 0.0819884892 
0.0546589928 0.0819884892 0.0819884892 0.0273294964 0.0819884892 0.0273294964 0.0819884892 0.0819884892 0.0546589928 0.0819884892 0.0819884892 0.0546589928 0.0273294964 0.0819884892 0.0819884892 0.0819884892 0.1093179857 0.0546589928 0.0819884892 0.0819884892 0.0546589928 0.1366474821 0.0819884892 0.0546589928 0.0819884892 0.0273294964 0.0546589928 0.1093179857 0.0546589928 0.0819884892 
0.0819884892 0.0546589928 0.0819884892 0.0819884892 0.0546589928 0.0546589928 0.0546589928 0.0546589928 0.0273294964 0.0546589928 0.0546589928 0.0546589928 0.0819884892 0.0546589928 0.0273294964 0.0819884892 0.0546589928 0.1093179857 0.0546589928 0.0546589928 0.1093179857 0.0546589928 0.0546589928 0.0273294964 0.0273294964 0.0546589928 0.0546589928 0.0273294964 0.1093179857 0.0546589928 
0.0819884892 0.0546589928 0.1093179857 0.0273294964 0.0546589928 0.0273294964 0.0819884892 0.0546589928 0.1093179857 0.0273294964 0.0819884892 0.0273294964 0.0546589928 0.1093179857 0.0819884892 0.0273294964 0.0546589928 0.0819884892 0.0819884892 0.0546589928 0.0546589928 0.0819884892 0.0546589928 0.0819884892 0.1093179857 0.0546589928 0.0819884892 0.0546589928 0.0546589928 0.1093179857 
0.0819884892 0.0273294964 0.0546589928 0.0273294964 0.0273294964 0.0546589928 0.0819884892 0.0546589928 0.0819884892 0.0819884892 0.0546589928 0.0273294964 0.1366474821 0.0273294964 0.0546589928 0.0819884892 0.0546589928 0.0546589928 0.0819884892 0.0546589928 0.0273294964 0.0273294964 0.0819884892 0.0546589928 0.0546589928 0.0546589928 0.0273294964 0.0819884892 0.0546589928 0.0546589928 
0.0273294964 0.0546589928 0.1093179857 0.0819884892 0.0819884892 0.0819884892 0.0546589928 0.0273294964 0.0819884892 0.0546589928 0.0819884892 0.0273294964 0.0546589928 0.0546589928 0.0819884892 0.0546589928 0.0546589928 0.1093179857 0.0546589928 0.1093179857 0.0819884892 0.0546589928 0.0819884892 0.0819884892 0.0546589928 0.0819884892 0.0273294964 0.0819884892 0.0819884892 0.0819884892 
0.0819884892 0.0546589928 0.0273294964 0.0546589928 0.0273294964 0.0819884892 0.0819884892 0.0819884892 0.1093179857 0.0546589928 0.0273294964 0.0546589928 0.1093179857 0.0819884892 0.0819884892 0.0546589928 0.0546589928 0.0546589928 0.0819884892 0.0546589928 0.0546589928 0.1093179857 0.0546589928 0.0546589928 0.0273294964 0.0546589928 0.0546589928 0.1366474821 0.0819884892 0.0546589928 
0.0546589928 0.0819884892 0.0273294964 0.0819884892 0.0819884892 0.0819884892 0.0819884892 0.0546589928 0.1093179857 0.0546589928 0.0273294964 0.0273294964 0.0819884892 0.0273294964 0.0546589928 0.0273294964 0.0546589928 0.1093179857 0.0819884892 0.0819884892 0.0819884892 0.0546589928 0.0546589928 0.0819884892 0.0273294964 0.0819884892 0.0273294964 0.0546589928 0.0546589928 0.0546589928 
0.0546589928 0.0546589928 0.0546589928 0.0819884892 0.0546589928 0.0546589928 0.0546589928 0.0546589928 0.0546589928 0.0819884892 0.0273294964 0.0273294964 0.1093179857 0.0546589928 0.0819884892 0.0819884892 0.0273294964 0.1093179857 0.0273294964 0.0273294964 0.1093179857 0.1366474821 0.0546589928 0.0546589928 0.0819884892 0.0546589928 0.0819884892 0.1093179857 0.0546589928 0.1093179857 
0.1093179857 0.0273294964 0.0273294964 0.1093179857 0.0819884892 0.0819884892 0.0546589928 0.0273294964 0.0273294964 0.0546589928 0.0546589928 0.0546589928 0.0819884892 0.0819884892 0.0546589928 0.0819884892 0.0546589928 0.0546589928 0.1093179857 0.0273294964 0.0819884892 0.0546589928 0.0273294964 0.0819884892 0.0273294964 0.1093179857 0.0546589928 0.0546589928 0.0819884892 0.0546589928 
0.0273294964 0.0819884892 0.0546589928 0.0819884892 0.0819884892 0.0273294964 0.0546589928 0.0819884892 0.0546589928 0.1093179857 0.0819884892 0.0546589928 0.0546589928 0.0273294964 0.0546589928 0.0273294964 0.0819884892 0.0546589928 0.0546589928 0.0546589928 0.0546589928 0.0546589928 0.0819884892 0.0546589928 0.1093179857 0.0273294964 0.1093179857 0.0546589928 0.0819884892 0.0546589928 
0.0273294964 0.0819884892 0.0546589928 0.0819884892 0.0819884892 0.1093179857 0.0273294964 0.0819884892 0.0273294964 0.0273294964 0.1093179857 0.0546589928 0.1093179857 0.0273294964 0.1366474821 0.0546589928 0.0819884892 0.0273294964 0.0819884892 0.0273294964 0.0273294964 0.1093179857 0.0819884892 0.0273294964 0.0546589928 0.0819884892 0.0273294964 0.0546589928 0.0819884892 0.0273294964 
0.0546589928 0.0273294964 0.0819884892 0.0273294964 0.0819884892 0.0819884892 0.0546589928 0.0273294964 0.1093179857 0.0546589928 0.0819884892 0.0819884892 0.0546589928 0.0546589928 0.0546589928 0.1093179857 0.0546589928 0.0546589928 0.0273294964 0.0546589928 0.0546589928 0.0546589928 0.0273294964 0.0546589928 0.0546589928 0.0819884892 0.1093179857 0.0819884892 0.0546589928 0.0819884892 
0.0819884892 0.0819884892 0.0819884892 0.0546589928 0.0819884892 0.0819884892 0.0546589928 0.0546589928 0.0273294964 0.0546589928 0.0819884892 0.0273294964 0.0819884892 0.0273294964 0.0546589928 0.0546589928 0.0273294964 0.0819884892 0.0819884892 0.0819884892 0.0273294964 0.0546589928 0.0819884892 0.0273294964 0.0546589928 0.1093179857 0.0273294964 0.0273294964 0.0546589928 0.0819884892 
0.0273294964 0.0546589928 0.0546589928 0.0819884892 0.0819884892 0.0546589928 0.0273294964 0.0546589928 0.0819884892 0.0819884892 0.0819884892 0.0819884892 0.0546589928 0.0273294964 0.1093179857 0.0273294964 0.0273294964 0.0819884892 0.0273294964 0.0546589928 0.0546589928 0.0546589928 0.1093179857 0.0273294964 0.1093179857 0.0546589928 0.1093179857 0.0546589928 0.0819884892 0.0546589928 
0.0819884892 0.0546589928 0.1093179857 0.0819884892 0.0546589928 0.0819884892 0.1093179857 0.0819884892 0.0819884892 0.0546589928 0.0546589928 0.0273294964 0.0273294964 0.0546589928 0.0546589928 0.0819884892 0.0819884892 0.0546589928 0.0273294964 0.0546589928 0.0273294964 0.0546589928 0.1093179857 0.0546589928 0.1093179857 0.0273294964 0.0546589928 0.0273294964 0.0546589928 0.0819884892 
0.0273294964 0.0546589928 0.0546589928 0.0819884892 0.0546589928 0.0819884892 0.0546589928 0.0819884892 0.0819884892 0.0273294964 0.0273294964 0.0819884892 0.0819884892 0.1093179857 0.0819884892 0.0546589928 0.0819884892 0.0546589928 0.0819884892 0.0273294964 0.0546589928 0.0273294964 0.0546589928 0.0273294964 0.0273294964 0.0273294964 0.0273294964 0.0273294964 0.0546589928 0.0819884892 
0.0546589928 0.0819884892 0.0546589928 0.0819884892 0.0546589928 0.0273294964 0.0546589928 0.1366474821 0.0819884892 0.0546589928 0.0546589928 0.0546589928 0.0819884892 0.0273294964 0.0819884892 0.0819884892 0.0546589928 0.0273294964 0.0546589928 0.0546589928 0.0819884892 0.0546589928 0.0819884892 0.0546589928 0.0546589928 0.0819884892 0.0546589928 0.1093179857 0.0546589928 0.0546589928 
0.0546589928 0.0819884892 0.0546589928 0.0819884892 0.0819884892 0.0819884892 0.0273294964 0.0546589928 0.0273294964 0.0819884892 0.0273294964 0.0819884892 0.0546589928 0.0819884892 0.0546589928 0.0546589928 0.0546589928 0.0819884892 0.1093179857 0.0273294964 0.0546589928 0.0819884892 0.0273294964 0.0546589928 0.0546589928 0.0273294964 0.0546589928 0.0546589928 0.0273294964 0.0819884892 
0.0546589928 0.1093179857 0.1093179857 0.0546589928 0.0546589928 0.0546589928 0.0546589928 0.0819884892 0.0819884892 0.0273294964 0.0819884892 0.0819884892 0.0819884892 0.0819884892 0.0546589928 0.0819884892 0.0546589928 0.0546589928 0.0546589928 0.1093179857 0.0273294964 0.0819884892 0.0546589928 0.0546589928 0.0819884892 0.0546589928 0.0546589928 0.0546589928 0.0819884892 0.0546589928 